
 Primary working directories    : /tmp/cm14oab
 Secondary working directories  : /tmp/cm14oab
 Wavefunction directory         : /home/home02/cm14oab/wfu/
 Main file repository           : /tmp/cm14oab/

 ARCHNAME  : Linux/x86_64
 FC        : /apps/developers/compilers/gnu/6.3.0/1/default/bin.wrapper/gfortran
 FCVERSION : 6.3.0
 BLASLIB   : -L/apps/developers/libraries/mkl/2017.1/1/gnu-6.3.0/lib/intel64 -lmkl_intel_ilp64 -lmkl_sequential -lmkl_core
 id        : uolmapsit

 Nodes                  nprocs
 login1.arc3.leeds.ac.uk    1

 Using customized tuning parameters: mindgm=10; mindgv=28; mindgc=1; mindgr=1; noblas=0; mincuda=1000; minvec=7
 default implementation of scratch files=df  

 basis=cc-pVDZ
 Angstrom
 r1=0.741
 geometry={H;H,H,r1}
 hf
 {fci}

 Variables initialized (661), CPU time= 0.00 sec
 Commands  initialized (458), CPU time= 0.01 sec, 486 directives.
 Default parameters read. Elapsed time= 0.08 sec

 Checking input...
 Passed
1


                                         ***  PROGRAM SYSTEM MOLPRO  ***
                         Copyright, University College Cardiff Consultants Limited, 2008

                                    Version 2010.1 linked Dec 15 2017 15:04:17


 **********************************************************************************************************************************
 LABEL *                                                                                 
 Linux-3.10.0-957.21.3.el7.x86_64/login1.arc3.leeds.ac.uk(x86_64) 64 bit serial version  DATE: 27-Oct-23          TIME: 11:18:53  
 **********************************************************************************************************************************

 SHA1:             2d48feba83d350316f804216586f0ee3ec107a61
 **********************************************************************************************************************************

 Variable memory set to    8000000 words,  buffer space   230000 words

 SETTING BASIS          =    CC-PVDZ
 SETTING R1             =         0.74100000                                  
 ZUNIT=ANG



 Recomputing integrals since basis changed


 Using spherical harmonics

 Library entry H      S cc-pVDZ              selected for orbital group  1
 Library entry H      P cc-pVDZ              selected for orbital group  1

1PROGRAM * SEWARD (Integral evaluation for generally contracted gaussian basis sets)     Author: Roland Lindh, 1990

 Geometry written to block  1 of record 700

 Orientation using atomic masses  
 Molecule type: Linear
 Symmetry elements: X,Y,Z
 Rotational constants:    1826.3166786   1826.3166786      0.0000000 GHz  (calculated with average atomic masses)

 Point group  D2h 



 ATOMIC COORDINATES

 NR  ATOM    CHARGE       X              Y              Z

   1  H       1.00    0.000000000    0.000000000   -0.700143532
   2  H       1.00    0.000000000    0.000000000    0.700143532

 Bond lengths in Bohr (Angstrom)

 1-2  1.400287063
     ( 0.741000000)

 NUCLEAR CHARGE:                    2
 NUMBER OF PRIMITIVE AOS:          14
 NUMBER OF SYMMETRY AOS:           14
 NUMBER OF CONTRACTIONS:           10   (   3Ag  +   1B3u +   1B2u +   0B1g +   3B1u +   1B2g +   1B3g +   0Au  )
 NUMBER OF CORE ORBITALS:           0   (   0Ag  +   0B3u +   0B2u +   0B1g +   0B1u +   0B2g +   0B3g +   0Au  )
 NUMBER OF VALENCE ORBITALS:        2   (   1Ag  +   0B3u +   0B2u +   0B1g +   1B1u +   0B2g +   0B3g +   0Au  )


 NUCLEAR REPULSION ENERGY    0.71413928


 Eigenvalues of metric

         1 0.110E+00 0.117E+01 0.357E+01
         2 0.149E+01
         3 0.149E+01
         5 0.146E-01 0.904E-01 0.105E+01
         6 0.510E+00
         7 0.510E+00


 Contracted 2-electron integrals neglected if value below      1.0D-11
 AO integral compression algorithm  1   Integral accuracy      1.0D-11

     0.262 MB (compressed) written to integral file (100.0%)


 NUMBER OF SORTED TWO-ELECTRON INTEGRALS:        373.     BUFFER LENGTH:  32768
 NUMBER OF SEGMENTS:   1  SEGMENT LENGTH:        373      RECORD LENGTH: 524288

 Memory used in sort:       0.56 MW

 SORT1 READ         776. AND WROTE         373. INTEGRALS IN      1 RECORDS. CPU TIME:     0.00 SEC, REAL TIME:     0.00 SEC
 SORT2 READ         373. AND WROTE         373. INTEGRALS IN      1 RECORDS. CPU TIME:     0.01 SEC, REAL TIME:     0.00 SEC

 FILE SIZES:   FILE 1:     2.8 MBYTE,  FILE 4:     4.2 MBYTE,   TOTAL:      7.0 MBYTE

 OPERATOR DM      FOR CENTER  0  COORDINATES:    0.000000    0.000000    0.000000


 **********************************************************************************************************************************
 DATASETS  * FILE   NREC   LENGTH (MB)   RECORD NAMES
              1      19        2.54       500      610      700      900      950      970     1000      129      960     1100   
                                          VAR    BASINP    GEOM    SYMINP    ZMAT    AOBASIS   BASIS     P2S    ABASIS      S 
                                         1400     1410     1200     1210     1080     1600     1650     1300     1700   
                                           T        V       H0       H01     AOSYM     SMH    MOLCAS    ERIS     OPER   

 PROGRAMS   *        TOTAL       INT
 CPU TIMES  *         0.09      0.03
 REAL TIME  *         0.25 SEC
 DISK USED  *         7.48 MB      
 **********************************************************************************************************************************

1PROGRAM * RHF-SCF (CLOSED SHELL)       Authors: W. Meyer, H.-J. Werner


 NUMBER OF ELECTRONS:       1+    1-
 CONVERGENCE THRESHOLDS:    1.00E-05 (Density)    1.00E-07 (Energy)
 MAX. NUMBER OF ITERATIONS:       60
 INTERPOLATION TYPE:            DIIS
 INTERPOLATION STEPS:              2 (START)      1 (STEP)
 LEVEL SHIFTS:                  0.00 (CLOSED)  0.00 (OPEN) 



 Orbital guess generated from atomic densities. Full valence occupancy:    1   0   0   0   1   0   0   0


 Molecular orbital dump at record        2100.2

 Initial alpha occupancy:   1   0   0   0   0   0   0
 Initial beta  occupancy:   1   0   0   0   0   0   0
 Wave function symmetry:    1

 ITERATION    DDIFF          GRAD             ENERGY        2-EL.EN.            DIPOLE MOMENTS         DIIS
    1      0.000D+00      0.000D+00        -1.12727318      1.280508    0.00000    0.00000    0.00000    0
    2      0.000D+00      0.130D-01        -1.12866750      1.310941    0.00000    0.00000    0.00000    1
    3      0.418D-01      0.219D-02        -1.12871094      1.317136    0.00000    0.00000    0.00000    2
    4      0.962D-02      0.112D-03        -1.12871101      1.317269    0.00000    0.00000    0.00000    3
    5      0.388D-03      0.126D-05        -1.12871101      1.317265    0.00000    0.00000    0.00000    3
    6      0.555D-05      0.121D-08        -1.12871101      1.317265    0.00000    0.00000    0.00000    0

 Final occupancy:   1   0   0   0   0   0   0

 !RHF STATE 1.1 Energy                 -1.128711010943
 Nuclear energy                         0.71413928
 One-electron energy                   -2.50148294
 Two-electron energy                    0.65863265
 Virial quotient                       -1.02958319
 !RHF STATE 1.1 Dipole moment           0.00000000     0.00000000     0.00000000
 Dipole moment /Debye                   0.00000000     0.00000000     0.00000000

 Orbital energies:

         1.1          2.1          3.1
     -0.592109     0.479561     1.956057

         1.2
      1.292792

         1.3
      1.292792

         1.5          2.5
      0.197248     0.936604

         1.6
      2.042840

         1.7
      2.042840


 **********************************************************************************************************************************
 DATASETS  * FILE   NREC   LENGTH (MB)   RECORD NAMES
              1      19        2.54       500      610      700      900      950      970     1000      129      960     1100   
                                          VAR    BASINP    GEOM    SYMINP    ZMAT    AOBASIS   BASIS     P2S    ABASIS      S 
                                         1400     1410     1200     1210     1080     1600     1650     1300     1700   
                                           T        V       H0       H01     AOSYM     SMH    MOLCAS    ERIS     OPER   

              2       3        0.26       700     1000     2100   
                                         GEOM     BASIS     RHF  

 PROGRAMS   *        TOTAL        HF       INT
 CPU TIMES  *         0.10      0.01      0.03
 REAL TIME  *         0.27 SEC
 DISK USED  *         7.48 MB      
 **********************************************************************************************************************************

1PROGRAM * FCI (Full CI)     Author: P.J. Knowles, 1984

 ***  Initialisation ***

 Molecular orbitals read from record     2100.2  Type=RHF/CANONICAL (state 1.1)

 Frozen orbitals:              0 (  0  0  0  0  0  0  0  0)
 Active orbitals:             10 (  3  1  1  0  3  1  1  0)
 Active electrons:             2
 Spin quantum number:          0.0
 Orbital pairs:                    16       6       6       2      11       6       6       2
 Strings:                           3       1       1       0       3       1       1       0
                                    3       1       1       0       3       1       1       0
 Determinants:                     22      12      12       4      22      12      12       4

 Load integrals                0.2 sec
 Transform integrals           0.2 sec
 Storage for integrals:            739
 Remaining memory:             7998861

 Core energy:               0.71413928
 Run Hamiltonian processor DAVIDSON
 Symmetry:                   1
 Trial vector:                  0.00
 Result vector:                 0.00
 Maximum iterations:           90
 Convergence threshold:         0.0000100
 RHS vector:                    0.00
 Hamiltonian shift:             0.0000000
 Output threshold:              0.0500000
 Options:                        0
 Number of roots:             1
0Hamiltonian diagonaliser entered at time      0.22
0Initial configuration generated:
       1      1.0000000     -1.1287110

 It  Tr    CPU  Convergence   Energy       Pop     dE(next)

  1   1    0.2  1.00000000    -1.12871101
+                                         0.32 -0.03600993 -0.03063100
  2   1    0.2  0.12360346    -1.15887214
+                                         0.36 -0.00443677 -0.00396857
  3   1    0.2  0.03202877    -1.16284440
+                                         0.36 -0.00050382 -0.00044091
  4   1    0.2  0.01473322    -1.16330647
+                                         0.23 -0.00008940 -0.00008074
  5   1    0.2  0.00768744    -1.16339099
+                                         0.18 -0.00001336 -0.00000983
  6   1    0.2  0.00255551    -1.16340188
+                                         0.32 -0.00000109 -0.00000091
  7   1    0.2  0.00053978    -1.16340284
+                                         0.41 -0.00000013 -0.00000012
  8   1    0.2  0.00027774    -1.16340296
+                                         0.23 -0.00000000 -0.00000000
  9   1    0.2  0.00005989    -1.16340296
+                                         0.41 -0.00000000 -0.00000000
 10   1    0.2  0.00001320    -1.16340296
+                                         0.14 -0.00000000 -0.00000000
 11   1    0.2  0.00000383    -1.16340296


RESULTS FOR STATE 1.1
=====================

 Correlation energy                    -0.034691950214
 !FCI STATE 1.1 Energy                 -1.163402961157
 CI Vector (threshold= 0.500E-01)
       0.991517971144  1  1
      -0.050259964908  2  2
      -0.053111421894  6  6
      -0.052716010044  7  7
 /EOF


 **********************************************************************************************************************************
 DATASETS  * FILE   NREC   LENGTH (MB)   RECORD NAMES
              1      19        2.54       500      610      700      900      950      970     1000      129      960     1100   
                                          VAR    BASINP    GEOM    SYMINP    ZMAT    AOBASIS   BASIS     P2S    ABASIS      S 
                                         1400     1410     1200     1210     1080     1600     1650     1300     1700   
                                           T        V       H0       H01     AOSYM     SMH    MOLCAS    ERIS     OPER   

              2       3        0.26       700     1000     2100   
                                         GEOM     BASIS     RHF  

 PROGRAMS   *        TOTAL       FCI        HF       INT
 CPU TIMES  *         0.11      0.01      0.01      0.03
 REAL TIME  *         0.31 SEC
 DISK USED  *         7.48 MB      
 **********************************************************************************************************************************

        FCI             HF-SCF  
     -1.16340296     -1.12871101
 **********************************************************************************************************************************
 Variable memory released
